# vtk DataFile Version 3.0
MOAB 5.2.0
ASCII
DATASET UNSTRUCTURED_GRID
POINTS 84 double
0 -5 -5
1 -5 -5
2 -5 -5
3 -5 -5
4 -5 -5
5 -5 -5
6 -5 -5
7 -5 -5
8 -5 -5
9 -5 -5
10 -5 -5
11 -5 -5
12 -5 -5
13 -5 -5
14 -5 -5
15 -5 -5
16 -5 -5
17 -5 -5
18 -5 -5
19 -5 -5
20 -5 -5
0 5 -5
1 5 -5
2 5 -5
3 5 -5
4 5 -5
5 5 -5
6 5 -5
7 5 -5
8 5 -5
9 5 -5
10 5 -5
11 5 -5
12 5 -5
13 5 -5
14 5 -5
15 5 -5
16 5 -5
17 5 -5
18 5 -5
19 5 -5
20 5 -5
0 -5 5
1 -5 5
2 -5 5
3 -5 5
4 -5 5
5 -5 5
6 -5 5
7 -5 5
8 -5 5
9 -5 5
10 -5 5
11 -5 5
12 -5 5
13 -5 5
14 -5 5
15 -5 5
16 -5 5
17 -5 5
18 -5 5
19 -5 5
20 -5 5
0 5 5
1 5 5
2 5 5
3 5 5
4 5 5
5 5 5
6 5 5
7 5 5
8 5 5
9 5 5
10 5 5
11 5 5
12 5 5
13 5 5
14 5 5
15 5 5
16 5 5
17 5 5
18 5 5
19 5 5
20 5 5
CELLS 20 180
8 0 1 22 21 42 43 64 63
8 1 2 23 22 43 44 65 64
8 2 3 24 23 44 45 66 65
8 3 4 25 24 45 46 67 66
8 4 5 26 25 46 47 68 67
8 5 6 27 26 47 48 69 68
8 6 7 28 27 48 49 70 69
8 7 8 29 28 49 50 71 70
8 8 9 30 29 50 51 72 71
8 9 10 31 30 51 52 73 72
8 10 11 32 31 52 53 74 73
8 11 12 33 32 53 54 75 74
8 12 13 34 33 54 55 76 75
8 13 14 35 34 55 56 77 76
8 14 15 36 35 56 57 78 77
8 15 16 37 36 57 58 79 78
8 16 17 38 37 58 59 80 79
8 17 18 39 38 59 60 81 80
8 18 19 40 39 60 61 82 81
8 19 20 41 40 61 62 83 82
CELL_TYPES 20
12
12
12
12
12
12
12
12
12
12
12
12
12
12
12
12
12
12
12
12
POINT_DATA 84
SCALARS GLOBAL_ID int 1
LOOKUP_TABLE default
1 
2 
3 
4 
5 
6 
7 
8 
9 
10 
11 
12 
13 
14 
15 
16 
17 
18 
19 
20 
21 
2 
3 
4 
5 
6 
7 
8 
9 
10 
11 
12 
13 
14 
15 
16 
17 
18 
19 
20 
21 
22 
2 
3 
4 
5 
6 
7 
8 
9 
10 
11 
12 
13 
14 
15 
16 
17 
18 
19 
20 
21 
22 
3 
4 
5 
6 
7 
8 
9 
10 
11 
12 
13 
14 
15 
16 
17 
18 
19 
20 
21 
22 
23 
CELL_DATA 20
SCALARS idx int 1
LOOKUP_TABLE default
0 
1 
2 
3 
4 
5 
6 
7 
8 
9 
10 
11 
12 
13 
14 
15 
16 
17 
18 
19 
SCALARS n_e_upper_bounds_000 double 1
LOOKUP_TABLE default
0.01 
0.01 
0.01 
0.01 
0.01 
0.01 
0.01 
0.01 
0.01 
0.01 
0.01 
0.01 
0.01 
0.01 
0.01 
0.01 
0.01 
0.01 
0.01 
0.01 
SCALARS n_e_upper_bounds_001 double 1
LOOKUP_TABLE default
0.15 
0.15 
0.15 
0.15 
0.15 
0.15 
0.15 
0.15 
0.15 
0.15 
0.15 
0.15 
0.15 
0.15 
0.15 
0.15 
0.15 
0.15 
0.15 
0.15 
SCALARS n_e_upper_bounds_002 double 1
LOOKUP_TABLE default
0.4 
0.4 
0.4 
0.4 
0.4 
0.4 
0.4 
0.4 
0.4 
0.4 
0.4 
0.4 
0.4 
0.4 
0.4 
0.4 
0.4 
0.4 
0.4 
0.4 
SCALARS n_e_upper_bounds_003 double 1
LOOKUP_TABLE default
0.9 
0.9 
0.9 
0.9 
0.9 
0.9 
0.9 
0.9 
0.9 
0.9 
0.9 
0.9 
0.9 
0.9 
0.9 
0.9 
0.9 
0.9 
0.9 
0.9 
SCALARS n_e_upper_bounds_004 double 1
LOOKUP_TABLE default
1.5 
1.5 
1.5 
1.5 
1.5 
1.5 
1.5 
1.5 
1.5 
1.5 
1.5 
1.5 
1.5 
1.5 
1.5 
1.5 
1.5 
1.5 
1.5 
1.5 
SCALARS ww_n_000 double 1
LOOKUP_TABLE default
0.1 
0.02 
0.02 
0.02 
0.02 
0.02 
0.004 
0.004 
0.004 
0.004 
0.004 
0.0008 
0.0008 
0.0008 
0.0008 
0.0008 
0.00016 
0.00016 
0.00016 
0.00016 
SCALARS ww_n_001 double 1
LOOKUP_TABLE default
0.1 
0.1 
0.02 
0.02 
0.02 
0.02 
0.02 
0.004 
0.004 
0.004 
0.004 
0.004 
0.0008 
0.0008 
0.0008 
0.0008 
0.0008 
0.00016 
0.00016 
0.00016 
SCALARS ww_n_002 double 1
LOOKUP_TABLE default
0.1 
0.1 
0.1 
0.02 
0.02 
0.02 
0.02 
0.02 
0.004 
0.004 
0.004 
0.004 
0.004 
0.0008 
0.0008 
0.0008 
0.0008 
0.0008 
0.00016 
0.00016 
SCALARS ww_n_003 double 1
LOOKUP_TABLE default
0.1 
0.1 
0.1 
0.1 
0.02 
0.02 
0.02 
0.02 
0.02 
0.004 
0.004 
0.004 
0.004 
0.004 
0.0008 
0.0008 
0.0008 
0.0008 
0.0008 
0.00016 
SCALARS ww_n_004 double 1
LOOKUP_TABLE default
0.1 
0.1 
0.1 
0.1 
0.1 
0.02 
0.02 
0.02 
0.02 
0.02 
0.004 
0.004 
0.004 
0.004 
0.004 
0.0008 
0.0008 
0.0008 
0.0008 
0.0008 
