# vtk DataFile Version 3.0
MOAB 5.2.0
ASCII
DATASET UNSTRUCTURED_GRID
POINTS 100 double
17 5 5
17 5 -5
17 -5 5
17 -5 -5
18 5 5
18 5 -5
18 -5 5
18 -5 -5
19 5 5
19 5 -5
19 -5 5
19 -5 -5
20 5 5
20 5 -5
20 -5 5
20 -5 -5
12 5 5
12 5 -5
12 -5 5
12 -5 -5
13 5 5
13 5 -5
13 -5 5
13 -5 -5
14 5 5
14 5 -5
14 -5 5
14 -5 -5
15 5 5
15 5 -5
15 -5 5
15 -5 -5
16 5 5
16 5 -5
16 -5 5
16 -5 -5
17 5 5
17 5 -5
17 -5 5
17 -5 -5
8 5 5
8 5 -5
8 -5 5
8 -5 -5
9 5 5
9 5 -5
9 -5 5
9 -5 -5
10 5 5
10 5 -5
10 -5 5
10 -5 -5
11 5 5
11 5 -5
11 -5 5
11 -5 -5
12 5 5
12 5 -5
12 -5 5
12 -5 -5
7 5 5
7 5 -5
7 -5 5
7 -5 -5
2 5 5
2 5 -5
2 -5 5
2 -5 -5
3 5 5
3 5 -5
3 -5 5
3 -5 -5
4 5 5
4 5 -5
4 -5 5
4 -5 -5
5 5 5
5 5 -5
5 -5 5
5 -5 -5
6 5 5
6 5 -5
6 -5 5
6 -5 -5
7 5 5
7 5 -5
7 -5 5
7 -5 -5
0 5 5
0 5 -5
0 -5 5
0 -5 -5
2 5 5
2 5 -5
2 -5 5
2 -5 -5
1 5 5
1 5 -5
1 -5 5
1 -5 -5
CELLS 188 736
2 2 0
2 0 1
2 1 3
2 3 2
2 18 16
2 16 17
2 17 19
2 19 18
2 62 60
2 60 61
2 61 63
2 63 62
2 66 64
2 64 65
2 65 67
2 67 66
3 7 3 5
3 1 5 3
3 7 6 3
3 2 3 6
3 7 11 6
3 10 6 11
3 7 5 11
3 9 11 5
3 6 4 2
3 0 2 4
3 6 10 4
3 8 4 10
3 5 1 4
3 0 4 1
3 5 4 9
3 8 9 4
3 11 15 10
3 14 10 15
3 11 9 15
3 13 15 9
3 9 8 13
3 12 13 8
3 10 14 8
3 12 8 14
3 15 13 14
3 12 14 13
3 3 2 1
3 0 1 2
3 19 23 18
3 22 18 23
3 19 17 23
3 21 23 17
3 18 22 16
3 20 16 22
3 17 16 21
3 20 21 16
3 23 27 22
3 26 22 27
3 23 21 27
3 25 27 21
3 21 20 25
3 24 25 20
3 22 26 20
3 24 20 26
3 27 31 26
3 30 26 31
3 27 25 31
3 29 31 25
3 25 24 29
3 28 29 24
3 26 30 24
3 28 24 30
3 31 35 30
3 34 30 35
3 31 29 35
3 33 35 29
3 29 28 33
3 32 33 28
3 30 34 28
3 32 28 34
3 35 3 34
3 2 34 3
3 35 33 3
3 1 3 33
3 33 32 1
3 0 1 32
3 34 2 32
3 0 32 2
3 19 18 17
3 16 17 18
3 63 43 62
3 42 62 43
3 63 61 43
3 41 43 61
3 62 42 60
3 40 60 42
3 61 60 41
3 40 41 60
3 43 47 42
3 46 42 47
3 43 41 47
3 45 47 41
3 41 40 45
3 44 45 40
3 42 46 40
3 44 40 46
3 47 51 46
3 50 46 51
3 47 45 51
3 49 51 45
3 45 44 49
3 48 49 44
3 46 50 44
3 48 44 50
3 51 55 50
3 54 50 55
3 51 49 55
3 53 55 49
3 49 48 53
3 52 53 48
3 50 54 48
3 52 48 54
3 19 18 55
3 54 55 18
3 17 19 53
3 55 53 19
3 17 53 16
3 52 16 53
3 16 52 18
3 54 18 52
3 63 62 61
3 60 61 62
3 71 67 69
3 65 69 67
3 71 70 67
3 66 67 70
3 71 75 70
3 74 70 75
3 71 69 75
3 73 75 69
3 70 68 66
3 64 66 68
3 70 74 68
3 72 68 74
3 69 65 68
3 64 68 65
3 69 68 73
3 72 73 68
3 75 79 74
3 78 74 79
3 75 73 79
3 77 79 73
3 73 72 77
3 76 77 72
3 74 78 72
3 76 72 78
3 79 83 78
3 82 78 83
3 79 77 83
3 81 83 77
3 77 76 81
3 80 81 76
3 78 82 76
3 80 76 82
3 63 62 83
3 82 83 62
3 61 63 81
3 83 81 63
3 61 81 60
3 80 60 81
3 60 80 62
3 82 62 80
3 67 66 65
3 64 65 66
3 91 90 89
3 88 89 90
3 91 99 90
3 98 90 99
3 91 89 99
3 97 99 89
3 99 67 98
3 66 98 67
3 99 97 67
3 65 67 97
3 89 88 97
3 96 97 88
3 97 96 65
3 64 65 96
3 90 98 88
3 96 88 98
3 98 66 96
3 64 96 66
CELL_TYPES 188
3
3
3
3
3
3
3
3
3
3
3
3
3
3
3
3
5
5
5
5
5
5
5
5
5
5
5
5
5
5
5
5
5
5
5
5
5
5
5
5
5
5
5
5
5
5
5
5
5
5
5
5
5
5
5
5
5
5
5
5
5
5
5
5
5
5
5
5
5
5
5
5
5
5
5
5
5
5
5
5
5
5
5
5
5
5
5
5
5
5
5
5
5
5
5
5
5
5
5
5
5
5
5
5
5
5
5
5
5
5
5
5
5
5
5
5
5
5
5
5
5
5
5
5
5
5
5
5
5
5
5
5
5
5
5
5
5
5
5
5
5
5
5
5
5
5
5
5
5
5
5
5
5
5
5
5
5
5
5
5
5
5
5
5
5
5
5
5
5
5
5
5
5
5
5
5
5
5
5
5
5
5
5
5
5
5
5
5
POINT_DATA 100
SCALARS GLOBAL_ID int 1
LOOKUP_TABLE default
-1 
-1 
-1 
-1 
-1 
-1 
-1 
-1 
-1 
-1 
-1 
-1 
-1 
-1 
-1 
-1 
-1 
-1 
-1 
-1 
-1 
-1 
-1 
-1 
-1 
-1 
-1 
-1 
-1 
-1 
-1 
-1 
-1 
-1 
-1 
-1 
-1 
-1 
-1 
-1 
-1 
-1 
-1 
-1 
-1 
-1 
-1 
-1 
-1 
-1 
-1 
-1 
-1 
-1 
-1 
-1 
-1 
-1 
-1 
-1 
-1 
-1 
-1 
-1 
-1 
-1 
-1 
-1 
-1 
-1 
-1 
-1 
-1 
-1 
-1 
-1 
-1 
-1 
-1 
-1 
-1 
-1 
-1 
-1 
-1 
-1 
-1 
-1 
-1 
-1 
-1 
-1 
-1 
-1 
-1 
-1 
-1 
-1 
-1 
-1 
CELL_DATA 188
SCALARS GLOBAL_ID int 1
LOOKUP_TABLE default
-1 
-1 
-1 
-1 
-1 
-1 
-1 
-1 
-1 
-1 
-1 
-1 
-1 
-1 
-1 
-1 
-1 
-1 
-1 
-1 
-1 
-1 
-1 
-1 
-1 
-1 
-1 
-1 
-1 
-1 
-1 
-1 
-1 
-1 
-1 
-1 
-1 
-1 
-1 
-1 
-1 
-1 
-1 
-1 
-1 
-1 
-1 
-1 
-1 
-1 
-1 
-1 
-1 
-1 
-1 
-1 
-1 
-1 
-1 
-1 
-1 
-1 
-1 
-1 
-1 
-1 
-1 
-1 
-1 
-1 
-1 
-1 
-1 
-1 
-1 
-1 
-1 
-1 
-1 
-1 
-1 
-1 
-1 
-1 
-1 
-1 
-1 
-1 
-1 
-1 
-1 
-1 
-1 
-1 
-1 
-1 
-1 
-1 
-1 
-1 
-1 
-1 
-1 
-1 
-1 
-1 
-1 
-1 
-1 
-1 
-1 
-1 
-1 
-1 
-1 
-1 
-1 
-1 
-1 
-1 
-1 
-1 
-1 
-1 
-1 
-1 
-1 
-1 
-1 
-1 
-1 
-1 
-1 
-1 
-1 
-1 
-1 
-1 
-1 
-1 
-1 
-1 
-1 
-1 
-1 
-1 
-1 
-1 
-1 
-1 
-1 
-1 
-1 
-1 
-1 
-1 
-1 
-1 
-1 
-1 
-1 
-1 
-1 
-1 
-1 
-1 
-1 
-1 
-1 
-1 
-1 
-1 
-1 
-1 
-1 
-1 
-1 
-1 
-1 
-1 
-1 
-1 
-1 
-1 
-1 
-1 
-1 
-1 
SCALARS ww_n_001 double 1
LOOKUP_TABLE default
0 
0 
0 
0 
0 
0 
0 
0 
0 
0 
0 
0 
0 
0 
0 
0 
0 
0 
0 
0 
0 
0 
0 
0 
0 
0 
0 
0 
0 
0 
0 
0 
0 
0 
0 
0 
0 
0 
0 
0 
0 
0 
0.00048 
0.00048 
0 
0 
0 
0 
0 
0 
0 
0 
0 
0 
0 
0 
0 
0 
0 
0 
0 
0 
0 
0 
0 
0 
0 
0 
0 
0 
0 
0 
0 
0 
0 
0 
0 
0 
0 
0 
0 
0 
0 
0 
0.0024 
0.0024 
0 
0 
0 
0 
0 
0 
0 
0 
0 
0 
0 
0 
0 
0 
0 
0 
0 
0 
0 
0 
0 
0 
0 
0 
0 
0 
0 
0 
0 
0 
0 
0 
0 
0 
0 
0 
0 
0 
0 
0 
0.012 
0.012 
0 
0 
0 
0 
0 
0 
0 
0 
0 
0 
0 
0 
0 
0 
0 
0 
0 
0 
0 
0 
0 
0 
0 
0 
0 
0 
0 
0 
0 
0 
0 
0 
0 
0 
0 
0 
0 
0 
0 
0 
0.06 
0.06 
0 
0 
0 
0 
0 
0 
0 
0 
0 
0 
0 
0 
0 
0 
0 
0 
0 
0 
