# vtk DataFile Version 3.0
MOAB 5.2.0
ASCII
DATASET UNSTRUCTURED_GRID
POINTS 24 double
0 -2.5 -2.5
2 -2.5 -2.5
4 -2.5 -2.5
6 -2.5 -2.5
8 -2.5 -2.5
10 -2.5 -2.5
0 2.5 -2.5
2 2.5 -2.5
4 2.5 -2.5
6 2.5 -2.5
8 2.5 -2.5
10 2.5 -2.5
0 -2.5 2.5
2 -2.5 2.5
4 -2.5 2.5
6 -2.5 2.5
8 -2.5 2.5
10 -2.5 2.5
0 2.5 2.5
2 2.5 2.5
4 2.5 2.5
6 2.5 2.5
8 2.5 2.5
10 2.5 2.5
CELLS 5 45
8 0 1 7 6 12 13 19 18
8 1 2 8 7 13 14 20 19
8 2 3 9 8 14 15 21 20
8 3 4 10 9 15 16 22 21
8 4 5 11 10 16 17 23 22
CELL_TYPES 5
12
12
12
12
12
POINT_DATA 24
SCALARS GLOBAL_ID int 1
LOOKUP_TABLE default
1 
2 
3 
4 
5 
6 
2 
3 
4 
5 
6 
7 
2 
3 
4 
5 
6 
7 
3 
4 
5 
6 
7 
8 
CELL_DATA 5
SCALARS idx int 1
LOOKUP_TABLE default
0 
1 
2 
3 
4 
SCALARS ww_n double 1
LOOKUP_TABLE default
0.5 
0.1 
0.02 
0.004 
0.0008 
