# vtk DataFile Version 3.0
MOAB 5.2.0
ASCII
DATASET UNSTRUCTURED_GRID
POINTS 100 double
18 5 5
18 5 -5
18 -5 5
18 -5 -5
19 5 5
19 5 -5
19 -5 5
19 -5 -5
20 5 5
20 5 -5
20 -5 5
20 -5 -5
13 5 5
13 5 -5
13 -5 5
13 -5 -5
14 5 5
14 5 -5
14 -5 5
14 -5 -5
15 5 5
15 5 -5
15 -5 5
15 -5 -5
16 5 5
16 5 -5
16 -5 5
16 -5 -5
17 5 5
17 5 -5
17 -5 5
17 -5 -5
18 5 5
18 5 -5
18 -5 5
18 -5 -5
8 5 5
8 5 -5
8 -5 5
8 -5 -5
9 5 5
9 5 -5
9 -5 5
9 -5 -5
10 5 5
10 5 -5
10 -5 5
10 -5 -5
11 5 5
11 5 -5
11 -5 5
11 -5 -5
12 5 5
12 5 -5
12 -5 5
12 -5 -5
13 5 5
13 5 -5
13 -5 5
13 -5 -5
8 5 5
8 5 -5
8 -5 5
8 -5 -5
3 5 5
3 5 -5
3 -5 5
3 -5 -5
4 5 5
4 5 -5
4 -5 5
4 -5 -5
5 5 5
5 5 -5
5 -5 5
5 -5 -5
6 5 5
6 5 -5
6 -5 5
6 -5 -5
7 5 5
7 5 -5
7 -5 5
7 -5 -5
0 5 5
0 5 -5
0 -5 5
0 -5 -5
2 5 5
2 5 -5
2 -5 5
2 -5 -5
3 5 5
3 5 -5
3 -5 5
3 -5 -5
1 5 5
1 5 -5
1 -5 5
1 -5 -5
CELLS 188 736
2 2 0
2 0 1
2 1 3
2 3 2
2 14 12
2 12 13
2 13 15
2 15 14
2 38 36
2 36 37
2 37 39
2 39 38
2 66 64
2 64 65
2 65 67
2 67 66
3 7 3 5
3 1 5 3
3 7 6 3
3 2 3 6
3 7 11 6
3 10 6 11
3 7 5 11
3 9 11 5
3 6 4 2
3 0 2 4
3 6 10 4
3 8 4 10
3 5 1 4
3 0 4 1
3 5 4 9
3 8 9 4
3 11 9 10
3 8 10 9
3 3 2 1
3 0 1 2
3 15 19 14
3 18 14 19
3 15 13 19
3 17 19 13
3 14 18 12
3 16 12 18
3 13 12 17
3 16 17 12
3 19 23 18
3 22 18 23
3 19 17 23
3 21 23 17
3 17 16 21
3 20 21 16
3 18 22 16
3 20 16 22
3 23 27 22
3 26 22 27
3 23 21 27
3 25 27 21
3 21 20 25
3 24 25 20
3 22 26 20
3 24 20 26
3 27 31 26
3 30 26 31
3 27 25 31
3 29 31 25
3 25 24 29
3 28 29 24
3 26 30 24
3 28 24 30
3 31 3 30
3 2 30 3
3 31 29 3
3 1 3 29
3 29 28 1
3 0 1 28
3 30 2 28
3 0 28 2
3 15 14 13
3 12 13 14
3 39 43 38
3 42 38 43
3 39 37 43
3 41 43 37
3 38 42 36
3 40 36 42
3 37 36 41
3 40 41 36
3 43 47 42
3 46 42 47
3 43 41 47
3 45 47 41
3 41 40 45
3 44 45 40
3 42 46 40
3 44 40 46
3 47 51 46
3 50 46 51
3 47 45 51
3 49 51 45
3 45 44 49
3 48 49 44
3 46 50 44
3 48 44 50
3 51 55 50
3 54 50 55
3 51 49 55
3 53 55 49
3 49 48 53
3 52 53 48
3 50 54 48
3 52 48 54
3 15 14 55
3 54 55 14
3 13 15 53
3 55 53 15
3 13 53 12
3 52 12 53
3 12 52 14
3 54 14 52
3 39 38 37
3 36 37 38
3 71 67 69
3 65 69 67
3 71 70 67
3 66 67 70
3 71 75 70
3 74 70 75
3 71 69 75
3 73 75 69
3 70 68 66
3 64 66 68
3 70 74 68
3 72 68 74
3 69 65 68
3 64 68 65
3 69 68 73
3 72 73 68
3 75 79 74
3 78 74 79
3 75 73 79
3 77 79 73
3 73 72 77
3 76 77 72
3 74 78 72
3 76 72 78
3 79 83 78
3 82 78 83
3 79 77 83
3 81 83 77
3 77 76 81
3 80 81 76
3 78 82 76
3 80 76 82
3 39 38 83
3 82 83 38
3 37 39 81
3 83 81 39
3 37 81 36
3 80 36 81
3 36 80 38
3 82 38 80
3 67 66 65
3 64 65 66
3 87 86 85
3 84 85 86
3 87 99 86
3 98 86 99
3 87 85 99
3 97 99 85
3 99 91 98
3 90 98 91
3 99 97 91
3 89 91 97
3 85 84 97
3 96 97 84
3 97 96 89
3 88 89 96
3 86 98 84
3 96 84 98
3 98 90 96
3 88 96 90
3 91 67 90
3 66 90 67
3 91 89 67
3 65 67 89
3 89 88 65
3 64 65 88
3 90 66 88
3 64 88 66
CELL_TYPES 188
3
3
3
3
3
3
3
3
3
3
3
3
3
3
3
3
5
5
5
5
5
5
5
5
5
5
5
5
5
5
5
5
5
5
5
5
5
5
5
5
5
5
5
5
5
5
5
5
5
5
5
5
5
5
5
5
5
5
5
5
5
5
5
5
5
5
5
5
5
5
5
5
5
5
5
5
5
5
5
5
5
5
5
5
5
5
5
5
5
5
5
5
5
5
5
5
5
5
5
5
5
5
5
5
5
5
5
5
5
5
5
5
5
5
5
5
5
5
5
5
5
5
5
5
5
5
5
5
5
5
5
5
5
5
5
5
5
5
5
5
5
5
5
5
5
5
5
5
5
5
5
5
5
5
5
5
5
5
5
5
5
5
5
5
5
5
5
5
5
5
5
5
5
5
5
5
5
5
5
5
5
5
5
5
5
5
5
5
POINT_DATA 100
SCALARS GLOBAL_ID int 1
LOOKUP_TABLE default
-1 
-1 
-1 
-1 
-1 
-1 
-1 
-1 
-1 
-1 
-1 
-1 
-1 
-1 
-1 
-1 
-1 
-1 
-1 
-1 
-1 
-1 
-1 
-1 
-1 
-1 
-1 
-1 
-1 
-1 
-1 
-1 
-1 
-1 
-1 
-1 
-1 
-1 
-1 
-1 
-1 
-1 
-1 
-1 
-1 
-1 
-1 
-1 
-1 
-1 
-1 
-1 
-1 
-1 
-1 
-1 
-1 
-1 
-1 
-1 
-1 
-1 
-1 
-1 
-1 
-1 
-1 
-1 
-1 
-1 
-1 
-1 
-1 
-1 
-1 
-1 
-1 
-1 
-1 
-1 
-1 
-1 
-1 
-1 
-1 
-1 
-1 
-1 
-1 
-1 
-1 
-1 
-1 
-1 
-1 
-1 
-1 
-1 
-1 
-1 
CELL_DATA 188
SCALARS GLOBAL_ID int 1
LOOKUP_TABLE default
-1 
-1 
-1 
-1 
-1 
-1 
-1 
-1 
-1 
-1 
-1 
-1 
-1 
-1 
-1 
-1 
-1 
-1 
-1 
-1 
-1 
-1 
-1 
-1 
-1 
-1 
-1 
-1 
-1 
-1 
-1 
-1 
-1 
-1 
-1 
-1 
-1 
-1 
-1 
-1 
-1 
-1 
-1 
-1 
-1 
-1 
-1 
-1 
-1 
-1 
-1 
-1 
-1 
-1 
-1 
-1 
-1 
-1 
-1 
-1 
-1 
-1 
-1 
-1 
-1 
-1 
-1 
-1 
-1 
-1 
-1 
-1 
-1 
-1 
-1 
-1 
-1 
-1 
-1 
-1 
-1 
-1 
-1 
-1 
-1 
-1 
-1 
-1 
-1 
-1 
-1 
-1 
-1 
-1 
-1 
-1 
-1 
-1 
-1 
-1 
-1 
-1 
-1 
-1 
-1 
-1 
-1 
-1 
-1 
-1 
-1 
-1 
-1 
-1 
-1 
-1 
-1 
-1 
-1 
-1 
-1 
-1 
-1 
-1 
-1 
-1 
-1 
-1 
-1 
-1 
-1 
-1 
-1 
-1 
-1 
-1 
-1 
-1 
-1 
-1 
-1 
-1 
-1 
-1 
-1 
-1 
-1 
-1 
-1 
-1 
-1 
-1 
-1 
-1 
-1 
-1 
-1 
-1 
-1 
-1 
-1 
-1 
-1 
-1 
-1 
-1 
-1 
-1 
-1 
-1 
-1 
-1 
-1 
-1 
-1 
-1 
-1 
-1 
-1 
-1 
-1 
-1 
-1 
-1 
-1 
-1 
-1 
-1 
SCALARS ww_n_002 double 1
LOOKUP_TABLE default
0 
0 
0 
0 
0 
0 
0 
0 
0 
0 
0 
0 
0 
0 
0 
0 
0 
0 
0 
0 
0 
0 
0 
0 
0 
0 
0 
0 
0 
0 
0 
0 
0 
0 
0.00048 
0.00048 
0 
0 
0 
0 
0 
0 
0 
0 
0 
0 
0 
0 
0 
0 
0 
0 
0 
0 
0 
0 
0 
0 
0 
0 
0 
0 
0 
0 
0 
0 
0 
0 
0 
0 
0 
0 
0 
0 
0 
0 
0.0024 
0.0024 
0 
0 
0 
0 
0 
0 
0 
0 
0 
0 
0 
0 
0 
0 
0 
0 
0 
0 
0 
0 
0 
0 
0 
0 
0 
0 
0 
0 
0 
0 
0 
0 
0 
0 
0 
0 
0 
0 
0 
0 
0.012 
0.012 
0 
0 
0 
0 
0 
0 
0 
0 
0 
0 
0 
0 
0 
0 
0 
0 
0 
0 
0 
0 
0 
0 
0 
0 
0 
0 
0 
0 
0 
0 
0 
0 
0 
0 
0 
0 
0 
0 
0 
0 
0.06 
0.06 
0 
0 
0 
0 
0 
0 
0 
0 
0 
0 
0 
0 
0 
0 
0 
0 
0 
0 
0 
0 
0 
0 
0 
0 
0 
0 
