# vtk DataFile Version 3.0
MOAB 5.2.0
ASCII
DATASET UNSTRUCTURED_GRID
POINTS 100 double
16 5 5
16 5 -5
16 -5 5
16 -5 -5
17 5 5
17 5 -5
17 -5 5
17 -5 -5
18 5 5
18 5 -5
18 -5 5
18 -5 -5
19 5 5
19 5 -5
19 -5 5
19 -5 -5
20 5 5
20 5 -5
20 -5 5
20 -5 -5
11 5 5
11 5 -5
11 -5 5
11 -5 -5
12 5 5
12 5 -5
12 -5 5
12 -5 -5
13 5 5
13 5 -5
13 -5 5
13 -5 -5
14 5 5
14 5 -5
14 -5 5
14 -5 -5
15 5 5
15 5 -5
15 -5 5
15 -5 -5
16 5 5
16 5 -5
16 -5 5
16 -5 -5
8 5 5
8 5 -5
8 -5 5
8 -5 -5
9 5 5
9 5 -5
9 -5 5
9 -5 -5
10 5 5
10 5 -5
10 -5 5
10 -5 -5
11 5 5
11 5 -5
11 -5 5
11 -5 -5
6 5 5
6 5 -5
6 -5 5
6 -5 -5
7 5 5
7 5 -5
7 -5 5
7 -5 -5
2 5 5
2 5 -5
2 -5 5
2 -5 -5
3 5 5
3 5 -5
3 -5 5
3 -5 -5
1 5 5
1 5 -5
1 -5 5
1 -5 -5
4 5 5
4 5 -5
4 -5 5
4 -5 -5
5 5 5
5 5 -5
5 -5 5
5 -5 -5
6 5 5
6 5 -5
6 -5 5
6 -5 -5
0 5 5
0 5 -5
0 -5 5
0 -5 -5
1 5 5
1 5 -5
1 -5 5
1 -5 -5
CELLS 188 736
2 2 0
2 0 1
2 1 3
2 3 2
2 22 20
2 20 21
2 21 23
2 23 22
2 62 60
2 60 61
2 61 63
2 63 62
2 78 76
2 76 77
2 77 79
2 79 78
3 7 3 5
3 1 5 3
3 7 6 3
3 2 3 6
3 7 11 6
3 10 6 11
3 7 5 11
3 9 11 5
3 6 4 2
3 0 2 4
3 6 10 4
3 8 4 10
3 5 1 4
3 0 4 1
3 5 4 9
3 8 9 4
3 11 15 10
3 14 10 15
3 11 9 15
3 13 15 9
3 9 8 13
3 12 13 8
3 10 14 8
3 12 8 14
3 15 19 14
3 18 14 19
3 15 13 19
3 17 19 13
3 13 12 17
3 16 17 12
3 14 18 12
3 16 12 18
3 19 17 18
3 16 18 17
3 3 2 1
3 0 1 2
3 23 27 22
3 26 22 27
3 23 21 27
3 25 27 21
3 22 26 20
3 24 20 26
3 21 20 25
3 24 25 20
3 27 31 26
3 30 26 31
3 27 25 31
3 29 31 25
3 25 24 29
3 28 29 24
3 26 30 24
3 28 24 30
3 31 35 30
3 34 30 35
3 31 29 35
3 33 35 29
3 29 28 33
3 32 33 28
3 30 34 28
3 32 28 34
3 35 39 34
3 38 34 39
3 35 33 39
3 37 39 33
3 33 32 37
3 36 37 32
3 34 38 32
3 36 32 38
3 39 3 38
3 2 38 3
3 39 37 3
3 1 3 37
3 37 36 1
3 0 1 36
3 38 2 36
3 0 36 2
3 23 22 21
3 20 21 22
3 63 67 62
3 66 62 67
3 63 61 67
3 65 67 61
3 62 66 60
3 64 60 66
3 61 60 65
3 64 65 60
3 67 47 66
3 46 66 47
3 67 65 47
3 45 47 65
3 65 64 45
3 44 45 64
3 66 46 64
3 44 64 46
3 47 51 46
3 50 46 51
3 47 45 51
3 49 51 45
3 45 44 49
3 48 49 44
3 46 50 44
3 48 44 50
3 51 55 50
3 54 50 55
3 51 49 55
3 53 55 49
3 49 48 53
3 52 53 48
3 50 54 48
3 52 48 54
3 23 22 55
3 54 55 22
3 21 23 53
3 55 53 23
3 21 53 20
3 52 20 53
3 20 52 22
3 54 22 52
3 63 62 61
3 60 61 62
3 71 79 69
3 77 69 79
3 71 70 79
3 78 79 70
3 71 75 70
3 74 70 75
3 71 69 75
3 73 75 69
3 70 68 78
3 76 78 68
3 70 74 68
3 72 68 74
3 69 77 68
3 76 68 77
3 69 68 73
3 72 73 68
3 75 83 74
3 82 74 83
3 75 73 83
3 81 83 73
3 73 72 81
3 80 81 72
3 74 82 72
3 80 72 82
3 83 87 82
3 86 82 87
3 83 81 87
3 85 87 81
3 81 80 85
3 84 85 80
3 82 86 80
3 84 80 86
3 63 62 87
3 86 87 62
3 61 63 85
3 87 85 63
3 61 85 60
3 84 60 85
3 60 84 62
3 86 62 84
3 79 78 77
3 76 77 78
3 95 94 93
3 92 93 94
3 95 79 94
3 78 94 79
3 95 93 79
3 77 79 93
3 93 92 77
3 76 77 92
3 94 78 92
3 76 92 78
CELL_TYPES 188
3
3
3
3
3
3
3
3
3
3
3
3
3
3
3
3
5
5
5
5
5
5
5
5
5
5
5
5
5
5
5
5
5
5
5
5
5
5
5
5
5
5
5
5
5
5
5
5
5
5
5
5
5
5
5
5
5
5
5
5
5
5
5
5
5
5
5
5
5
5
5
5
5
5
5
5
5
5
5
5
5
5
5
5
5
5
5
5
5
5
5
5
5
5
5
5
5
5
5
5
5
5
5
5
5
5
5
5
5
5
5
5
5
5
5
5
5
5
5
5
5
5
5
5
5
5
5
5
5
5
5
5
5
5
5
5
5
5
5
5
5
5
5
5
5
5
5
5
5
5
5
5
5
5
5
5
5
5
5
5
5
5
5
5
5
5
5
5
5
5
5
5
5
5
5
5
5
5
5
5
5
5
5
5
5
5
5
5
POINT_DATA 100
SCALARS GLOBAL_ID int 1
LOOKUP_TABLE default
-1 
-1 
-1 
-1 
-1 
-1 
-1 
-1 
-1 
-1 
-1 
-1 
-1 
-1 
-1 
-1 
-1 
-1 
-1 
-1 
-1 
-1 
-1 
-1 
-1 
-1 
-1 
-1 
-1 
-1 
-1 
-1 
-1 
-1 
-1 
-1 
-1 
-1 
-1 
-1 
-1 
-1 
-1 
-1 
-1 
-1 
-1 
-1 
-1 
-1 
-1 
-1 
-1 
-1 
-1 
-1 
-1 
-1 
-1 
-1 
-1 
-1 
-1 
-1 
-1 
-1 
-1 
-1 
-1 
-1 
-1 
-1 
-1 
-1 
-1 
-1 
-1 
-1 
-1 
-1 
-1 
-1 
-1 
-1 
-1 
-1 
-1 
-1 
-1 
-1 
-1 
-1 
-1 
-1 
-1 
-1 
-1 
-1 
-1 
-1 
CELL_DATA 188
SCALARS GLOBAL_ID int 1
LOOKUP_TABLE default
-1 
-1 
-1 
-1 
-1 
-1 
-1 
-1 
-1 
-1 
-1 
-1 
-1 
-1 
-1 
-1 
-1 
-1 
-1 
-1 
-1 
-1 
-1 
-1 
-1 
-1 
-1 
-1 
-1 
-1 
-1 
-1 
-1 
-1 
-1 
-1 
-1 
-1 
-1 
-1 
-1 
-1 
-1 
-1 
-1 
-1 
-1 
-1 
-1 
-1 
-1 
-1 
-1 
-1 
-1 
-1 
-1 
-1 
-1 
-1 
-1 
-1 
-1 
-1 
-1 
-1 
-1 
-1 
-1 
-1 
-1 
-1 
-1 
-1 
-1 
-1 
-1 
-1 
-1 
-1 
-1 
-1 
-1 
-1 
-1 
-1 
-1 
-1 
-1 
-1 
-1 
-1 
-1 
-1 
-1 
-1 
-1 
-1 
-1 
-1 
-1 
-1 
-1 
-1 
-1 
-1 
-1 
-1 
-1 
-1 
-1 
-1 
-1 
-1 
-1 
-1 
-1 
-1 
-1 
-1 
-1 
-1 
-1 
-1 
-1 
-1 
-1 
-1 
-1 
-1 
-1 
-1 
-1 
-1 
-1 
-1 
-1 
-1 
-1 
-1 
-1 
-1 
-1 
-1 
-1 
-1 
-1 
-1 
-1 
-1 
-1 
-1 
-1 
-1 
-1 
-1 
-1 
-1 
-1 
-1 
-1 
-1 
-1 
-1 
-1 
-1 
-1 
-1 
-1 
-1 
-1 
-1 
-1 
-1 
-1 
-1 
-1 
-1 
-1 
-1 
-1 
-1 
-1 
-1 
-1 
-1 
-1 
-1 
SCALARS ww_n_000 double 1
LOOKUP_TABLE default
0 
0 
0 
0 
0 
0 
0 
0 
0 
0 
0 
0 
0 
0 
0 
0 
0 
0 
0 
0 
0 
0 
0 
0 
0 
0 
0 
0 
0 
0 
0 
0 
0 
0 
0 
0 
0 
0 
0 
0 
0 
0 
0 
0 
0 
0 
0 
0 
0 
0 
0.00048 
0.00048 
0 
0 
0 
0 
0 
0 
0 
0 
0 
0 
0 
0 
0 
0 
0 
0 
0 
0 
0 
0 
0 
0 
0 
0 
0 
0 
0 
0 
0 
0 
0 
0 
0 
0 
0 
0 
0 
0 
0 
0 
0.0024 
0.0024 
0 
0 
0 
0 
0 
0 
0 
0 
0 
0 
0 
0 
0 
0 
0 
0 
0 
0 
0 
0 
0 
0 
0 
0 
0 
0 
0 
0 
0 
0 
0 
0 
0 
0 
0 
0 
0 
0 
0 
0 
0.012 
0.012 
0 
0 
0 
0 
0 
0 
0 
0 
0 
0 
0 
0 
0 
0 
0 
0 
0 
0 
0 
0 
0 
0 
0 
0 
0 
0 
0 
0 
0 
0 
0 
0 
0 
0 
0 
0 
0 
0 
0 
0 
0.06 
0.06 
0 
0 
0 
0 
0 
0 
0 
0 
0 
0 
