# vtk DataFile Version 3.0
MOAB 5.2.0
ASCII
DATASET UNSTRUCTURED_GRID
POINTS 100 double
19 5 5
19 5 -5
19 -5 5
19 -5 -5
20 5 5
20 5 -5
20 -5 5
20 -5 -5
14 5 5
14 5 -5
14 -5 5
14 -5 -5
15 5 5
15 5 -5
15 -5 5
15 -5 -5
16 5 5
16 5 -5
16 -5 5
16 -5 -5
17 5 5
17 5 -5
17 -5 5
17 -5 -5
18 5 5
18 5 -5
18 -5 5
18 -5 -5
19 5 5
19 5 -5
19 -5 5
19 -5 -5
9 5 5
9 5 -5
9 -5 5
9 -5 -5
10 5 5
10 5 -5
10 -5 5
10 -5 -5
11 5 5
11 5 -5
11 -5 5
11 -5 -5
12 5 5
12 5 -5
12 -5 5
12 -5 -5
13 5 5
13 5 -5
13 -5 5
13 -5 -5
14 5 5
14 5 -5
14 -5 5
14 -5 -5
8 5 5
8 5 -5
8 -5 5
8 -5 -5
9 5 5
9 5 -5
9 -5 5
9 -5 -5
4 5 5
4 5 -5
4 -5 5
4 -5 -5
5 5 5
5 5 -5
5 -5 5
5 -5 -5
6 5 5
6 5 -5
6 -5 5
6 -5 -5
7 5 5
7 5 -5
7 -5 5
7 -5 -5
0 5 5
0 5 -5
0 -5 5
0 -5 -5
2 5 5
2 5 -5
2 -5 5
2 -5 -5
3 5 5
3 5 -5
3 -5 5
3 -5 -5
1 5 5
1 5 -5
1 -5 5
1 -5 -5
4 5 5
4 5 -5
4 -5 5
4 -5 -5
CELLS 188 736
2 2 0
2 0 1
2 1 3
2 3 2
2 10 8
2 8 9
2 9 11
2 11 10
2 34 32
2 32 33
2 33 35
2 35 34
2 66 64
2 64 65
2 65 67
2 67 66
3 7 3 5
3 1 5 3
3 7 6 3
3 2 3 6
3 7 5 6
3 4 6 5
3 6 4 2
3 0 2 4
3 5 1 4
3 0 4 1
3 3 2 1
3 0 1 2
3 11 15 10
3 14 10 15
3 11 9 15
3 13 15 9
3 10 14 8
3 12 8 14
3 9 8 13
3 12 13 8
3 15 19 14
3 18 14 19
3 15 13 19
3 17 19 13
3 13 12 17
3 16 17 12
3 14 18 12
3 16 12 18
3 19 23 18
3 22 18 23
3 19 17 23
3 21 23 17
3 17 16 21
3 20 21 16
3 18 22 16
3 20 16 22
3 23 27 22
3 26 22 27
3 23 21 27
3 25 27 21
3 21 20 25
3 24 25 20
3 22 26 20
3 24 20 26
3 27 3 26
3 2 26 3
3 27 25 3
3 1 3 25
3 25 24 1
3 0 1 24
3 26 2 24
3 0 24 2
3 11 10 9
3 8 9 10
3 35 39 34
3 38 34 39
3 35 33 39
3 37 39 33
3 34 38 32
3 36 32 38
3 33 32 37
3 36 37 32
3 39 43 38
3 42 38 43
3 39 37 43
3 41 43 37
3 37 36 41
3 40 41 36
3 38 42 36
3 40 36 42
3 43 47 42
3 46 42 47
3 43 41 47
3 45 47 41
3 41 40 45
3 44 45 40
3 42 46 40
3 44 40 46
3 47 51 46
3 50 46 51
3 47 45 51
3 49 51 45
3 45 44 49
3 48 49 44
3 46 50 44
3 48 44 50
3 11 10 51
3 50 51 10
3 9 11 49
3 51 49 11
3 9 49 8
3 48 8 49
3 8 48 10
3 50 10 48
3 35 34 33
3 32 33 34
3 71 67 69
3 65 69 67
3 71 70 67
3 66 67 70
3 71 75 70
3 74 70 75
3 71 69 75
3 73 75 69
3 70 68 66
3 64 66 68
3 70 74 68
3 72 68 74
3 69 65 68
3 64 68 65
3 69 68 73
3 72 73 68
3 75 79 74
3 78 74 79
3 75 73 79
3 77 79 73
3 73 72 77
3 76 77 72
3 74 78 72
3 76 72 78
3 79 59 78
3 58 78 59
3 79 77 59
3 57 59 77
3 77 76 57
3 56 57 76
3 78 58 76
3 56 76 58
3 35 34 59
3 58 59 34
3 33 35 57
3 59 57 35
3 33 57 32
3 56 32 57
3 32 56 34
3 58 34 56
3 67 66 65
3 64 65 66
3 83 82 81
3 80 81 82
3 83 95 82
3 94 82 95
3 83 81 95
3 93 95 81
3 95 87 94
3 86 94 87
3 95 93 87
3 85 87 93
3 81 80 93
3 92 93 80
3 93 92 85
3 84 85 92
3 82 94 80
3 92 80 94
3 94 86 92
3 84 92 86
3 87 91 86
3 90 86 91
3 87 85 91
3 89 91 85
3 85 84 89
3 88 89 84
3 86 90 84
3 88 84 90
3 91 67 90
3 66 90 67
3 91 89 67
3 65 67 89
3 89 88 65
3 64 65 88
3 90 66 88
3 64 88 66
CELL_TYPES 188
3
3
3
3
3
3
3
3
3
3
3
3
3
3
3
3
5
5
5
5
5
5
5
5
5
5
5
5
5
5
5
5
5
5
5
5
5
5
5
5
5
5
5
5
5
5
5
5
5
5
5
5
5
5
5
5
5
5
5
5
5
5
5
5
5
5
5
5
5
5
5
5
5
5
5
5
5
5
5
5
5
5
5
5
5
5
5
5
5
5
5
5
5
5
5
5
5
5
5
5
5
5
5
5
5
5
5
5
5
5
5
5
5
5
5
5
5
5
5
5
5
5
5
5
5
5
5
5
5
5
5
5
5
5
5
5
5
5
5
5
5
5
5
5
5
5
5
5
5
5
5
5
5
5
5
5
5
5
5
5
5
5
5
5
5
5
5
5
5
5
5
5
5
5
5
5
5
5
5
5
5
5
5
5
5
5
5
5
POINT_DATA 100
SCALARS GLOBAL_ID int 1
LOOKUP_TABLE default
-1 
-1 
-1 
-1 
-1 
-1 
-1 
-1 
-1 
-1 
-1 
-1 
-1 
-1 
-1 
-1 
-1 
-1 
-1 
-1 
-1 
-1 
-1 
-1 
-1 
-1 
-1 
-1 
-1 
-1 
-1 
-1 
-1 
-1 
-1 
-1 
-1 
-1 
-1 
-1 
-1 
-1 
-1 
-1 
-1 
-1 
-1 
-1 
-1 
-1 
-1 
-1 
-1 
-1 
-1 
-1 
-1 
-1 
-1 
-1 
-1 
-1 
-1 
-1 
-1 
-1 
-1 
-1 
-1 
-1 
-1 
-1 
-1 
-1 
-1 
-1 
-1 
-1 
-1 
-1 
-1 
-1 
-1 
-1 
-1 
-1 
-1 
-1 
-1 
-1 
-1 
-1 
-1 
-1 
-1 
-1 
-1 
-1 
-1 
-1 
CELL_DATA 188
SCALARS GLOBAL_ID int 1
LOOKUP_TABLE default
-1 
-1 
-1 
-1 
-1 
-1 
-1 
-1 
-1 
-1 
-1 
-1 
-1 
-1 
-1 
-1 
-1 
-1 
-1 
-1 
-1 
-1 
-1 
-1 
-1 
-1 
-1 
-1 
-1 
-1 
-1 
-1 
-1 
-1 
-1 
-1 
-1 
-1 
-1 
-1 
-1 
-1 
-1 
-1 
-1 
-1 
-1 
-1 
-1 
-1 
-1 
-1 
-1 
-1 
-1 
-1 
-1 
-1 
-1 
-1 
-1 
-1 
-1 
-1 
-1 
-1 
-1 
-1 
-1 
-1 
-1 
-1 
-1 
-1 
-1 
-1 
-1 
-1 
-1 
-1 
-1 
-1 
-1 
-1 
-1 
-1 
-1 
-1 
-1 
-1 
-1 
-1 
-1 
-1 
-1 
-1 
-1 
-1 
-1 
-1 
-1 
-1 
-1 
-1 
-1 
-1 
-1 
-1 
-1 
-1 
-1 
-1 
-1 
-1 
-1 
-1 
-1 
-1 
-1 
-1 
-1 
-1 
-1 
-1 
-1 
-1 
-1 
-1 
-1 
-1 
-1 
-1 
-1 
-1 
-1 
-1 
-1 
-1 
-1 
-1 
-1 
-1 
-1 
-1 
-1 
-1 
-1 
-1 
-1 
-1 
-1 
-1 
-1 
-1 
-1 
-1 
-1 
-1 
-1 
-1 
-1 
-1 
-1 
-1 
-1 
-1 
-1 
-1 
-1 
-1 
-1 
-1 
-1 
-1 
-1 
-1 
-1 
-1 
-1 
-1 
-1 
-1 
-1 
-1 
-1 
-1 
-1 
-1 
SCALARS ww_n_003 double 1
LOOKUP_TABLE default
0 
0 
0 
0 
0 
0 
0 
0 
0 
0 
0 
0 
0 
0 
0 
0 
0 
0 
0 
0 
0 
0 
0 
0 
0 
0 
0.00048 
0.00048 
0 
0 
0 
0 
0 
0 
0 
0 
0 
0 
0 
0 
0 
0 
0 
0 
0 
0 
0 
0 
0 
0 
0 
0 
0 
0 
0 
0 
0 
0 
0 
0 
0 
0 
0 
0 
0 
0 
0 
0 
0.0024 
0.0024 
0 
0 
0 
0 
0 
0 
0 
0 
0 
0 
0 
0 
0 
0 
0 
0 
0 
0 
0 
0 
0 
0 
0 
0 
0 
0 
0 
0 
0 
0 
0 
0 
0 
0 
0 
0 
0 
0 
0 
0 
0.012 
0.012 
0 
0 
0 
0 
0 
0 
0 
0 
0 
0 
0 
0 
0 
0 
0 
0 
0 
0 
0 
0 
0 
0 
0 
0 
0 
0 
0 
0 
0 
0 
0 
0 
0 
0 
0 
0 
0 
0 
0 
0 
0.06 
0.06 
0 
0 
0 
0 
0 
0 
0 
0 
0 
0 
0 
0 
0 
0 
0 
0 
0 
0 
0 
0 
0 
0 
0 
0 
0 
0 
0 
0 
0 
0 
0 
0 
0 
0 
