# vtk DataFile Version 3.0
MOAB 5.2.0
ASCII
DATASET UNSTRUCTURED_GRID
POINTS 96 double
15 5 5
15 5 -5
15 -5 5
15 -5 -5
16 5 5
16 5 -5
16 -5 5
16 -5 -5
17 5 5
17 5 -5
17 -5 5
17 -5 -5
18 5 5
18 5 -5
18 -5 5
18 -5 -5
19 5 5
19 5 -5
19 -5 5
19 -5 -5
20 5 5
20 5 -5
20 -5 5
20 -5 -5
10 5 5
10 5 -5
10 -5 5
10 -5 -5
11 5 5
11 5 -5
11 -5 5
11 -5 -5
12 5 5
12 5 -5
12 -5 5
12 -5 -5
13 5 5
13 5 -5
13 -5 5
13 -5 -5
14 5 5
14 5 -5
14 -5 5
14 -5 -5
15 5 5
15 5 -5
15 -5 5
15 -5 -5
8 5 5
8 5 -5
8 -5 5
8 -5 -5
9 5 5
9 5 -5
9 -5 5
9 -5 -5
10 5 5
10 5 -5
10 -5 5
10 -5 -5
5 5 5
5 5 -5
5 -5 5
5 -5 -5
6 5 5
6 5 -5
6 -5 5
6 -5 -5
7 5 5
7 5 -5
7 -5 5
7 -5 -5
0 5 5
0 5 -5
0 -5 5
0 -5 -5
2 5 5
2 5 -5
2 -5 5
2 -5 -5
3 5 5
3 5 -5
3 -5 5
3 -5 -5
1 5 5
1 5 -5
1 -5 5
1 -5 -5
4 5 5
4 5 -5
4 -5 5
4 -5 -5
5 5 5
5 5 -5
5 -5 5
5 -5 -5
CELLS 182 716
2 2 0
2 0 1
2 1 3
2 3 2
2 26 24
2 24 25
2 25 27
2 27 26
2 62 60
2 60 61
2 61 63
2 63 62
3 3 7 2
3 6 2 7
3 3 1 7
3 5 7 1
3 2 6 0
3 4 0 6
3 1 0 5
3 4 5 0
3 7 11 6
3 10 6 11
3 7 5 11
3 9 11 5
3 5 4 9
3 8 9 4
3 6 10 4
3 8 4 10
3 11 15 10
3 14 10 15
3 11 9 15
3 13 15 9
3 9 8 13
3 12 13 8
3 10 14 8
3 12 8 14
3 15 19 14
3 18 14 19
3 15 13 19
3 17 19 13
3 13 12 17
3 16 17 12
3 14 18 12
3 16 12 18
3 19 23 18
3 22 18 23
3 19 17 23
3 21 23 17
3 17 16 21
3 20 21 16
3 18 22 16
3 20 16 22
3 23 21 22
3 20 22 21
3 3 2 1
3 0 1 2
3 27 31 26
3 30 26 31
3 27 25 31
3 29 31 25
3 26 30 24
3 28 24 30
3 25 24 29
3 28 29 24
3 31 35 30
3 34 30 35
3 31 29 35
3 33 35 29
3 29 28 33
3 32 33 28
3 30 34 28
3 32 28 34
3 35 39 34
3 38 34 39
3 35 33 39
3 37 39 33
3 33 32 37
3 36 37 32
3 34 38 32
3 36 32 38
3 39 43 38
3 42 38 43
3 39 37 43
3 41 43 37
3 37 36 41
3 40 41 36
3 38 42 36
3 40 36 42
3 3 2 43
3 42 43 2
3 1 3 41
3 43 41 3
3 1 41 0
3 40 0 41
3 0 40 2
3 42 2 40
3 27 26 25
3 24 25 26
3 67 63 65
3 61 65 63
3 67 66 63
3 62 63 66
3 67 71 66
3 70 66 71
3 67 65 71
3 69 71 65
3 66 64 62
3 60 62 64
3 66 70 64
3 68 64 70
3 65 61 64
3 60 64 61
3 65 64 69
3 68 69 64
3 71 51 70
3 50 70 51
3 71 69 51
3 49 51 69
3 69 68 49
3 48 49 68
3 70 50 68
3 48 68 50
3 51 55 50
3 54 50 55
3 51 49 55
3 53 55 49
3 49 48 53
3 52 53 48
3 50 54 48
3 52 48 54
3 27 26 55
3 54 55 26
3 25 27 53
3 55 53 27
3 25 53 24
3 52 24 53
3 24 52 26
3 54 26 52
3 63 62 61
3 60 61 62
3 75 74 73
3 72 73 74
3 75 87 74
3 86 74 87
3 75 73 87
3 85 87 73
3 87 79 86
3 78 86 79
3 87 85 79
3 77 79 85
3 73 72 85
3 84 85 72
3 85 84 77
3 76 77 84
3 74 86 72
3 84 72 86
3 86 78 84
3 76 84 78
3 79 83 78
3 82 78 83
3 79 77 83
3 81 83 77
3 77 76 81
3 80 81 76
3 78 82 76
3 80 76 82
3 83 91 82
3 90 82 91
3 83 81 91
3 89 91 81
3 81 80 89
3 88 89 80
3 82 90 80
3 88 80 90
3 91 63 90
3 62 90 63
3 91 89 63
3 61 63 89
3 89 88 61
3 60 61 88
3 90 62 88
3 60 88 62
CELL_TYPES 182
3
3
3
3
3
3
3
3
3
3
3
3
5
5
5
5
5
5
5
5
5
5
5
5
5
5
5
5
5
5
5
5
5
5
5
5
5
5
5
5
5
5
5
5
5
5
5
5
5
5
5
5
5
5
5
5
5
5
5
5
5
5
5
5
5
5
5
5
5
5
5
5
5
5
5
5
5
5
5
5
5
5
5
5
5
5
5
5
5
5
5
5
5
5
5
5
5
5
5
5
5
5
5
5
5
5
5
5
5
5
5
5
5
5
5
5
5
5
5
5
5
5
5
5
5
5
5
5
5
5
5
5
5
5
5
5
5
5
5
5
5
5
5
5
5
5
5
5
5
5
5
5
5
5
5
5
5
5
5
5
5
5
5
5
5
5
5
5
5
5
5
5
5
5
5
5
5
5
5
5
5
5
POINT_DATA 96
SCALARS GLOBAL_ID int 1
LOOKUP_TABLE default
-1 
-1 
-1 
-1 
-1 
-1 
-1 
-1 
-1 
-1 
-1 
-1 
-1 
-1 
-1 
-1 
-1 
-1 
-1 
-1 
-1 
-1 
-1 
-1 
-1 
-1 
-1 
-1 
-1 
-1 
-1 
-1 
-1 
-1 
-1 
-1 
-1 
-1 
-1 
-1 
-1 
-1 
-1 
-1 
-1 
-1 
-1 
-1 
-1 
-1 
-1 
-1 
-1 
-1 
-1 
-1 
-1 
-1 
-1 
-1 
-1 
-1 
-1 
-1 
-1 
-1 
-1 
-1 
-1 
-1 
-1 
-1 
-1 
-1 
-1 
-1 
-1 
-1 
-1 
-1 
-1 
-1 
-1 
-1 
-1 
-1 
-1 
-1 
-1 
-1 
-1 
-1 
-1 
-1 
-1 
-1 
CELL_DATA 182
SCALARS GLOBAL_ID int 1
LOOKUP_TABLE default
-1 
-1 
-1 
-1 
-1 
-1 
-1 
-1 
-1 
-1 
-1 
-1 
-1 
-1 
-1 
-1 
-1 
-1 
-1 
-1 
-1 
-1 
-1 
-1 
-1 
-1 
-1 
-1 
-1 
-1 
-1 
-1 
-1 
-1 
-1 
-1 
-1 
-1 
-1 
-1 
-1 
-1 
-1 
-1 
-1 
-1 
-1 
-1 
-1 
-1 
-1 
-1 
-1 
-1 
-1 
-1 
-1 
-1 
-1 
-1 
-1 
-1 
-1 
-1 
-1 
-1 
-1 
-1 
-1 
-1 
-1 
-1 
-1 
-1 
-1 
-1 
-1 
-1 
-1 
-1 
-1 
-1 
-1 
-1 
-1 
-1 
-1 
-1 
-1 
-1 
-1 
-1 
-1 
-1 
-1 
-1 
-1 
-1 
-1 
-1 
-1 
-1 
-1 
-1 
-1 
-1 
-1 
-1 
-1 
-1 
-1 
-1 
-1 
-1 
-1 
-1 
-1 
-1 
-1 
-1 
-1 
-1 
-1 
-1 
-1 
-1 
-1 
-1 
-1 
-1 
-1 
-1 
-1 
-1 
-1 
-1 
-1 
-1 
-1 
-1 
-1 
-1 
-1 
-1 
-1 
-1 
-1 
-1 
-1 
-1 
-1 
-1 
-1 
-1 
-1 
-1 
-1 
-1 
-1 
-1 
-1 
-1 
-1 
-1 
-1 
-1 
-1 
-1 
-1 
-1 
-1 
-1 
-1 
-1 
-1 
-1 
-1 
-1 
-1 
-1 
-1 
-1 
SCALARS ww_n_004 double 1
LOOKUP_TABLE default
0 
0 
0 
0 
0 
0 
0 
0 
0 
0 
0 
0 
0 
0 
0 
0 
0 
0 
0 
0 
0 
0 
0 
0 
0 
0 
0 
0 
0 
0 
0 
0 
0 
0 
0 
0 
0 
0 
0 
0 
0 
0 
0 
0 
0 
0 
0 
0 
0 
0 
0 
0 
0 
0 
0.0024 
0.0024 
0 
0 
0 
0 
0 
0 
0 
0 
0 
0 
0 
0 
0 
0 
0 
0 
0 
0 
0 
0 
0 
0 
0 
0 
0 
0 
0 
0 
0 
0 
0 
0 
0 
0 
0 
0 
0 
0 
0 
0 
0.012 
0.012 
0 
0 
0 
0 
0 
0 
0 
0 
0 
0 
0 
0 
0 
0 
0 
0 
0 
0 
0 
0 
0 
0 
0 
0 
0 
0 
0 
0 
0 
0 
0 
0 
0 
0 
0 
0 
0 
0 
0 
0 
0.06 
0.06 
0 
0 
0 
0 
0 
0 
0 
0 
0 
0 
0 
0 
0 
0 
0 
0 
0 
0 
0 
0 
0 
0 
0 
0 
0 
0 
0 
0 
0 
0 
0 
0 
0 
0 
0 
0 
0 
0 
0 
0 
0 
0 
